% Model:              multimorph.mph
% Version:            COMSOL 5.3.0.260
% Date:               Nov 18 2017, 22:51
% Table:              Table 2 - emi.C11 w emi.alpha11 (emi.C11, w, emi.alpha11)
% x_lo (um)              Tb (degC)                Maxwell capacitance (F), Point: 22Displacement field, Z component (µm), Point: 22Coefficient of thermal expansion, 11 component (1/K), Point: 22
99.99999999999999        0                        1.325704738529547E-15    0.6529982959050301       1.42E-5
99.99999999999999        5                        1.3336105458658089E-15   0.48976258803574774      1.42E-5
99.99999999999999        10                       1.341643642745996E-15    0.3265130579905526       1.42E-5
99.99999999999999        15                       1.3498053127491177E-15   0.16325076867358393      1.42E-5
99.99999999999999        20                       1.358096783155228E-15    -2.3225059524723304E-5   1.42E-5
99.99999999999999        25                       1.366519248402983E-15    -0.16330786859347296     1.42E-5
99.99999999999999        30                       1.3750739029264146E-15   -0.3266021075841131      1.42E-5
99.99999999999999        35                       1.3837619842281821E-15   -0.4899048879915573      1.42E-5
99.99999999999999        40                       1.3925848272751827E-15   -0.6532151561152134      1.42E-5
99.99999999999999        45                       1.4015439310020259E-15   -0.8165318586293956      1.42E-5
99.99999999999999        50                       1.4106410372190758E-15   -0.9798539426218094      1.42E-5
99.99999999999999        55                       1.4198782215003135E-15   -1.1431803556349613      1.42E-5
99.99999999999999        60                       1.4292579946489339E-15   -1.3065100457110521      1.42E-5
99.99999999999999        65                       1.438783412108961E-15    -1.4698419614421594      1.42E-5
99.99999999999999        70                       1.4484581872715603E-15   -1.633175052026763       1.42E-5
99.99999999999999        75                       1.4582868031494243E-15   -1.7965082673347692      1.42E-5
99.99999999999999        80                       1.4682746155853664E-15   -1.9598405579865887      1.42E-5
99.99999999999999        85                       1.478427940328352E-15    -2.1231708754448637      1.42E-5
99.99999999999999        90                       1.488754116318572E-15    -2.2864981721271995      1.42E-5
99.99999999999999        95                       1.49926153875398E-15     -2.449821401543052       1.42E-5
99.99999999999999        100                      1.5099596583044179E-15   -2.613139518452377       1.42E-5
150                      0                        1.913161236901761E-15    1.4375377719071585       1.42E-5
150                      5                        1.9364018410838453E-15   1.0781782317937738       1.42E-5
150                      10                       1.96046466726967E-15     0.7187772119818435       1.42E-5
150                      15                       1.985376497143973E-15    0.3593442492018503       1.42E-5
150                      20                       2.011163539262108E-15    -1.1613474396704735E-4   1.42E-5
150                      25                       2.0378520429919204E-15   -0.35959942190320876     1.42E-5
150                      30                       2.0654701754606127E-15   -0.7191010995453783      1.42E-5
150                      35                       2.0940511289439783E-15   -1.0786166620065283      1.42E-5
150                      40                       2.1236376385160307E-15   -1.4381416132588927      1.42E-5
150                      45                       2.1542877857899864E-15   -1.7976714707280075      1.42E-5
150                      50                       2.1860814313848165E-15   -2.157201771367095       1.42E-5
150                      55                       2.219125996079418E-15    -2.516728081873846       1.42E-5
150                      60                       2.2535600493618276E-15   -2.8762460155614056      1.42E-5
150                      65                       2.28955394427875E-15     -3.235751256422564       1.42E-5
150                      70                       2.327308929748069E-15    -3.5952395796719796      1.42E-5
150                      75                       2.3670586619521307E-15   -3.954706829048537       1.42E-5
150                      80                       2.4090768804402493E-15   -4.314148775046372       1.42E-5
150                      85                       2.4536914911591005E-15   -4.6735608112902876      1.42E-5
150                      90                       2.5013030340757273E-15   -5.032937678249125       1.42E-5
150                      95                       2.552407381725857E-15    -5.392273686244853       1.42E-5
150                      100                      2.607625579690818E-15    -5.751563541867444       1.42E-5
199.99999999999997       0                        2.4515185214712732E-15   2.5261592360846548       1.42E-5
199.99999999999997       5                        2.500018420587387E-15    1.894634736297156        1.42E-5
199.99999999999997       10                       2.5515014556706113E-15   1.26303043254449         1.42E-5
199.99999999999997       15                       2.6061787023283556E-15   0.6313595023026989       1.42E-5
199.99999999999997       20                       2.66425732663156E-15     -3.649195908885402E-4    1.42E-5
199.99999999999997       25                       2.7259500386894528E-15   -0.6321297656159577      1.42E-5
199.99999999999997       30                       2.791508577308074E-15    -1.2639220849539103      1.42E-5
199.99999999999997       35                       2.861294533513699E-15    -1.8957291309459012      1.42E-5
199.99999999999997       40                       2.9358863989489295E-15   -2.527538540811638       1.42E-5
199.99999999999997       45                       3.0161862519922865E-15   -3.1593387631593526      1.42E-5
199.99999999999997       50                       3.103476550014339E-15    -3.791119879687691       1.42E-5
199.99999999999997       55                       3.1994707933353597E-15   -4.422873379254036       1.42E-5
199.99999999999997       60                       3.306498488574426E-15    -5.054581280060422       1.42E-5
199.99999999999997       65                       3.427883675353498E-15    -5.686226612636833       1.42E-5
199.99999999999997       70                       3.568572323812773E-15    -6.317786346928603       1.42E-5
199.99999999999997       75                       3.736332135750827E-15    -6.949260104914004       1.42E-5
199.99999999999997       80                       3.944333973675101E-15    -7.580651480489368       1.42E-5
199.99999999999997       85                       4.217454800744328E-15    -8.211966665962882       1.42E-5
199.99999999999997       90                       4.60789756798983E-15     -8.843252707356706       1.42E-5
199.99999999999997       95                       5.669265679811431E-15    NaN                      1.42E-5
199.99999999999997       100                      5.669265679811431E-15    NaN                      1.42E-5
250                      0                        2.935493898788377E-15    3.9185879582773118       1.42E-5
250                      5                        3.018423030197389E-15    2.938941019268392        1.42E-5
250                      10                       3.1090696715255587E-15   1.9591192881914863       1.42E-5
250                      15                       3.2083981837086313E-15   0.9791724390802712       1.42E-5
250                      20                       3.3173951291878144E-15   -8.69229315408654E-4     1.42E-5
250                      25                       3.4371060095677897E-15   -0.9809760683698819      1.42E-5
250                      30                       3.568952289594917E-15    -1.9611199823437862      1.42E-5
250                      35                       3.715542533402256E-15    -2.941276714904944       1.42E-5
250                      40                       3.88169558942397E-15     -3.9214331309120234      1.42E-5
250                      45                       4.075286245875225E-15    -4.901587069845606       1.42E-5
250                      50                       4.309374806259212E-15    -5.881670480198386       1.42E-5
250                      55                       4.6080066272302876E-15   -6.861631798965929       1.42E-5
250                      60                       5.022758299652786E-15    -7.841559868854818       1.42E-5
250                      65                       5.376403200882578E-15    NaN                      1.42E-5
250                      70                       5.376403200882578E-15    NaN                      1.42E-5
250                      75                       5.376403200882578E-15    NaN                      1.42E-5
250                      80                       5.376403200882578E-15    NaN                      1.42E-5
250                      85                       5.376403200882578E-15    NaN                      1.42E-5
250                      90                       5.376403200882578E-15    NaN                      1.42E-5
250                      95                       5.376403200882578E-15    NaN                      1.42E-5
250                      100                      5.376403200882578E-15    NaN                      1.42E-5
300                      0                        3.364731188543116E-15    5.614765235770811        1.42E-5
300                      5                        3.4891461778135397E-15   4.211359512399516        1.42E-5
300                      10                       3.629532895880763E-15    2.806903961593269        1.42E-5
300                      15                       3.7888808761551866E-15   1.402613533835479        1.42E-5
300                      20                       3.9706369577431225E-15   -0.0018368159473221143   1.42E-5
300                      25                       4.1785998819695E-15      -1.4063918694749582      1.42E-5
300                      30                       4.41898493648686E-15     -2.811010609290153       1.42E-5
300                      35                       4.70604341578126E-15     -4.215707116154461       1.42E-5
300                      40                       5.0693882119678E-15      -5.620111465174012       1.42E-5
300                      45                       5.575138239450562E-15    -7.02480009547584        1.42E-5
300                      50                       6.420557843550824E-15    -8.430336991954011       1.42E-5
300                      55                       8.09448502251755E-15     NaN                      1.42E-5
300                      60                       8.09448502251755E-15     NaN                      1.42E-5
300                      65                       8.09448502251755E-15     NaN                      1.42E-5
300                      70                       8.09448502251755E-15     NaN                      1.42E-5
300                      75                       8.09448502251755E-15     NaN                      1.42E-5
300                      80                       8.09448502251755E-15     NaN                      1.42E-5
300                      85                       8.09448502251755E-15     NaN                      1.42E-5
300                      90                       8.09448502251755E-15     NaN                      1.42E-5
300                      95                       8.09448502251755E-15     NaN                      1.42E-5
300                      100                      8.09448502251755E-15     NaN                      1.42E-5
350                      0                        3.7422086651475856E-15   7.614372965598423        1.42E-5
350                      5                        3.912542822235304E-15    5.712648670575116        1.42E-5
350                      10                       4.110913668243846E-15    3.808340916328276        1.42E-5
350                      15                       4.345135431563114E-15    1.901545414351864        1.42E-5
350                      20                       4.624038808788434E-15    -0.0033975186843201626   1.42E-5
350                      25                       4.9591161848135006E-15   -1.9085190247048         1.42E-5
350                      30                       5.373369055997381E-15    -3.8138428145322694      1.42E-5
350                      35                       5.931737391822094E-15    -5.719632547101294       1.42E-5
350                      40                       6.828179406347535E-15    -7.625752674495132       1.42E-5
350                      45                       8.667238853064478E-15    NaN                      1.42E-5
350                      50                       8.667238853064478E-15    NaN                      1.42E-5
350                      55                       8.667238853064478E-15    NaN                      1.42E-5
350                      60                       8.667238853064478E-15    NaN                      1.42E-5
350                      65                       8.667238853064478E-15    NaN                      1.42E-5
350                      70                       8.667238853064478E-15    NaN                      1.42E-5
350                      75                       8.667238853064478E-15    NaN                      1.42E-5
350                      80                       8.667238853064478E-15    NaN                      1.42E-5
350                      85                       8.667238853064478E-15    NaN                      1.42E-5
350                      90                       8.667238853064478E-15    NaN                      1.42E-5
350                      95                       8.667238853064478E-15    NaN                      1.42E-5
350                      100                      8.667238853064478E-15    NaN                      1.42E-5
