% Model:              multimorph.mph
% Version:            COMSOL 5.3.0.260
% Date:               Nov 18 2017, 22:36
% Table:              Table 2 - emi.C11 w emi.alpha11 (emi.C11, w, emi.alpha11)
% Metal index            Tb (degC)                Maxwell capacitance (F), Point: 22Displacement field, Z component (µm), Point: 22Coefficient of thermal expansion, 11 component (1/K), Point: 22
1                        0                        3.7422086658417075E-15   7.614372957676329        1.42E-5
1                        5                        3.912542818200358E-15    5.712648709959482        1.42E-5
1                        10                       4.110913670274532E-15    3.8083409001257116       1.42E-5
1                        15                       4.345135431597555E-15    1.901545414076799        1.42E-5
1                        20                       4.6240388087885395E-15   -0.0033975186848746917   1.42E-5
1                        25                       4.959116185576775E-15    -1.9085190281460667      1.42E-5
1                        30                       5.373369056651164E-15    -3.8138428169552836      1.42E-5
1                        35                       5.931737391697058E-15    -5.719632546804267       1.42E-5
1                        40                       6.828179406307999E-15    -7.625752674438973       1.42E-5
1                        45                       8.667223214887521E-15    NaN                      1.42E-5
1                        50                       8.667223214887521E-15    NaN                      1.42E-5
1                        55                       8.667223214887521E-15    NaN                      1.42E-5
1                        60                       8.667223214887521E-15    NaN                      1.42E-5
1                        65                       8.667223214887521E-15    NaN                      1.42E-5
1                        70                       8.667223214887521E-15    NaN                      1.42E-5
1                        75                       8.667223214887521E-15    NaN                      1.42E-5
1                        80                       8.667223214887521E-15    NaN                      1.42E-5
1                        85                       8.667223214887521E-15    NaN                      1.42E-5
1                        90                       8.667223214887521E-15    NaN                      1.42E-5
1                        95                       8.667223214887521E-15    NaN                      1.42E-5
1                        100                      8.667223214887521E-15    NaN                      1.42E-5
2                        0                        3.4162102696327138E-15   12.177283046082517       2.3100000000000002E-5
2                        5                        3.622918979160973E-15    9.138697558264846        2.3100000000000002E-5
2                        10                       3.877352169658367E-15    6.093134024257728        2.3100000000000002E-5
2                        15                       4.200252419177296E-15    3.046200330040222        2.3100000000000002E-5
2                        20                       4.623711159414995E-15    -0.001660687262159901    2.3100000000000002E-5
2                        25                       5.194299225367289E-15    -3.050106754951521       2.3100000000000002E-5
2                        30                       6.070513512425704E-15    -6.099494772326816       2.3100000000000002E-5
2                        35                       7.660424140492252E-15    NaN                      2.3100000000000002E-5
2                        40                       7.660424140492252E-15    NaN                      2.3100000000000002E-5
2                        45                       7.660424140492252E-15    NaN                      2.3100000000000002E-5
2                        50                       7.660424140492252E-15    NaN                      2.3100000000000002E-5
2                        55                       7.660424140492252E-15    NaN                      2.3100000000000002E-5
2                        60                       7.660424140492252E-15    NaN                      2.3100000000000002E-5
2                        65                       7.660424140492252E-15    NaN                      2.3100000000000002E-5
2                        70                       7.660424140492252E-15    NaN                      2.3100000000000002E-5
2                        75                       7.660424140492252E-15    NaN                      2.3100000000000002E-5
2                        80                       7.660424140492252E-15    NaN                      2.3100000000000002E-5
2                        85                       7.660424140492252E-15    NaN                      2.3100000000000002E-5
2                        90                       7.660424140492252E-15    NaN                      2.3100000000000002E-5
2                        95                       7.660424140492252E-15    NaN                      2.3100000000000002E-5
2                        100                      7.660424140492252E-15    NaN                      2.3100000000000002E-5
3                        0                        4.014978907561038E-15    4.687894958046906        8.6E-6
3                        5                        4.143998248793147E-15    3.5157051894095277       8.6E-6
3                        10                       4.28697012765226E-15     2.343396249279571        8.6E-6
3                        15                       4.44607976362975E-15     1.1709953202101469       8.6E-6
3                        20                       4.6236761273293786E-15   -0.0014741237651184746   8.6E-6
3                        25                       4.822391702522846E-15    -1.1739920655799434      8.6E-6
3                        30                       5.0461280206216525E-15   -2.3465473044819993      8.6E-6
3                        35                       5.302599359062372E-15    -3.519154460765592       8.6E-6
3                        40                       5.606529155334214E-15    -4.6918965632589265      8.6E-6
3                        45                       5.984579573313152E-15    -5.86472870118141        8.6E-6
3                        50                       6.490917262118108E-15    -7.037557139928665       8.6E-6
3                        55                       7.264449217586091E-15    -8.2109362012596         8.6E-6
3                        60                       8.278031963307843E-15    NaN                      8.6E-6
3                        65                       8.278031963307843E-15    NaN                      8.6E-6
3                        70                       8.278031963307843E-15    NaN                      8.6E-6
3                        75                       8.278031963307843E-15    NaN                      8.6E-6
3                        80                       8.278031963307843E-15    NaN                      8.6E-6
3                        85                       8.278031963307843E-15    NaN                      8.6E-6
3                        90                       8.278031963307843E-15    NaN                      8.6E-6
3                        95                       8.278031963307843E-15    NaN                      8.6E-6
3                        100                      8.278031963307843E-15    NaN                      8.6E-6
