% Model:              multimorph.mph
% Version:            COMSOL 5.3.0.260
% Date:               Nov 19 2017, 03:45
% Table:              Table 2 - emi.C11 w emi.alpha11 (emi.C11, w)
% Metal index            Tb (degC)                Maxwell capacitance (fF), Point: 22Displacement field, Z component (µm), Point: 22Coefficient of thermal expansion, 11 component (1/K), Point: 22
2                        0                        3.4162102696327135       12.177283046082517       2.3100000000000002E-5
2                        5                        3.622918979160973        9.138697558264846        2.3100000000000002E-5
2                        10                       3.877352169658366        6.093134024257728        2.3100000000000002E-5
2                        15                       4.200252419177295        3.046200330040222        2.3100000000000002E-5
2                        20                       4.623711159414994        -0.001660687262159901    2.3100000000000002E-5
2                        25                       5.194299225367288        -3.050106754951521       2.3100000000000002E-5
2                        30                       6.070513512425704        -6.099494772326816       2.3100000000000002E-5
2                        35                       7.6604241404922515       NaN                      2.3100000000000002E-5
2                        40                       7.6604241404922515       NaN                      2.3100000000000002E-5
2                        45                       7.6604241404922515       NaN                      2.3100000000000002E-5
2                        50                       7.6604241404922515       NaN                      2.3100000000000002E-5
2                        55                       7.6604241404922515       NaN                      2.3100000000000002E-5
2                        60                       7.6604241404922515       NaN                      2.3100000000000002E-5
2                        65                       7.6604241404922515       NaN                      2.3100000000000002E-5
2                        70                       7.6604241404922515       NaN                      2.3100000000000002E-5
2                        75                       7.6604241404922515       NaN                      2.3100000000000002E-5
2                        80                       7.6604241404922515       NaN                      2.3100000000000002E-5
2                        85                       7.6604241404922515       NaN                      2.3100000000000002E-5
2                        90                       7.6604241404922515       NaN                      2.3100000000000002E-5
2                        95                       7.6604241404922515       NaN                      2.3100000000000002E-5
2                        100                      7.6604241404922515       NaN                      2.3100000000000002E-5
1                        0                        3.742208665841707        7.614372957676329        1.42E-5
1                        5                        3.9125428182003574       5.712648709959482        1.42E-5
1                        10                       4.110913670274531        3.8083409001257116       1.42E-5
1                        15                       4.345135431597554        1.901545414076799        1.42E-5
1                        20                       4.624038808788539        -0.0033975186848746917   1.42E-5
1                        25                       4.959116185576774        -1.9085190281460667      1.42E-5
1                        30                       5.373369056651163        -3.8138428169552836      1.42E-5
1                        35                       5.931737391697057        -5.719632546804267       1.42E-5
1                        40                       6.828179406307998        -7.625752674438973       1.42E-5
1                        45                       8.66722321488752         NaN                      1.42E-5
1                        50                       8.66722321488752         NaN                      1.42E-5
1                        55                       8.66722321488752         NaN                      1.42E-5
1                        60                       8.66722321488752         NaN                      1.42E-5
1                        65                       8.66722321488752         NaN                      1.42E-5
1                        70                       8.66722321488752         NaN                      1.42E-5
1                        75                       8.66722321488752         NaN                      1.42E-5
1                        80                       8.66722321488752         NaN                      1.42E-5
1                        85                       8.66722321488752         NaN                      1.42E-5
1                        90                       8.66722321488752         NaN                      1.42E-5
1                        95                       8.66722321488752         NaN                      1.42E-5
1                        100                      8.66722321488752         NaN                      1.42E-5
3                        0                        4.014978907561038        4.687894958046906        8.6E-6
3                        5                        4.143998248793146        3.5157051894095277       8.6E-6
3                        10                       4.28697012765226         2.343396249279571        8.6E-6
3                        15                       4.44607976362975         1.1709953202101469       8.6E-6
3                        20                       4.623676127329378        -0.0014741237651184746   8.6E-6
3                        25                       4.822391702522846        -1.1739920655799434      8.6E-6
3                        30                       5.046128020621652        -2.3465473044819993      8.6E-6
3                        35                       5.302599359062371        -3.519154460765592       8.6E-6
3                        40                       5.606529155334213        -4.6918965632589265      8.6E-6
3                        45                       5.984579573313151        -5.86472870118141        8.6E-6
3                        50                       6.490917262118107        -7.037557139928665       8.6E-6
3                        55                       7.26444921758609         -8.2109362012596         8.6E-6
3                        60                       8.278031963307843        NaN                      8.6E-6
3                        65                       8.278031963307843        NaN                      8.6E-6
3                        70                       8.278031963307843        NaN                      8.6E-6
3                        75                       8.278031963307843        NaN                      8.6E-6
3                        80                       8.278031963307843        NaN                      8.6E-6
3                        85                       8.278031963307843        NaN                      8.6E-6
3                        90                       8.278031963307843        NaN                      8.6E-6
3                        95                       8.278031963307843        NaN                      8.6E-6
3                        100                      8.278031963307843        NaN                      8.6E-6
