% Model:              multimorph_prestress_lite.mph
% Version:            COMSOL 5.3.0.316
% Date:               Nov 20 2017, 00:03
% Table:              Table 1 - emi.C11, w (emi.C11, w)
% S0 (GPa)               Tb (degC)                Maxwell capacitance (fF), Point: 22Displacement field, Z component (µm), Point: 22
-0.8700000000000001      0                        1.1858323167185645       106.3397801186806
-0.8700000000000001      10                       1.1986014552416615       103.41028035248556
-0.8700000000000001      20                       1.2139201144144458       100.05888168544365
-0.8700000000000001      30                       1.2303481262168965       96.63023040719759
-0.8700000000000001      40                       1.2477185874055676       93.17312006792416
-0.8700000000000001      50                       1.2660763054288406       89.69343258000103
-0.8700000000000001      60                       1.2854986223225515       86.19242088365554
-0.8700000000000001      70                       1.3060750309477214       82.67092188166632
-0.8700000000000001      80                       1.3279065774148453       79.12973932534155
-0.8700000000000001      90                       1.351107541820278        75.56969916849792
-0.8700000000000001      100                      1.3758083551838434       71.99160959071325
-0.8700000000000001      110                      1.4021587656496082       68.39630436648234
-0.8700000000000001      120                      1.43033224231272         64.78461387741928
-0.8700000000000001      130                      1.4605315489524564       61.157377290980115
-0.8700000000000001      140                      1.4929958331819444       57.515430663525635
-0.8700000000000001      150                      1.5280095697566969       53.85962747150141
-0.8700000000000001      160                      1.5659146230340537       50.190823680642744
-0.8700000000000001      170                      1.6071261781915227       46.50987648674968
-0.8700000000000001      180                      1.652154337007578        42.81764090694844
-0.8700000000000001      190                      1.7016338299023595       39.11497606836262
-0.8700000000000001      200                      1.7563657169671825       35.402764376709946
-0.8700000000000001      210                      1.8173789944235181       31.681868570790837
-0.8700000000000001      220                      1.8949615547679646       27.52638427455144
-0.8700000000000001      230                      1.97428466908911         23.792125136713267
-0.8700000000000001      240                      2.065879060403788        20.052073958531924
-0.8700000000000001      250                      2.1734700589770233       16.306950675039655
-0.8700000000000001      260                      2.302651267349757        12.557632547283315
-0.8700000000000001      270                      2.46234455162063         8.80499549464453
-0.8700000000000001      280                      2.6679825737344025       5.049910942245455
-0.8700000000000001      290                      2.9495946741720953       1.2932358188736741
-0.8700000000000001      300                      3.3777831680822947       -2.4642230079474285
-0.8700000000000001      310                      4.1934851357358545       -6.221976743139408
-0.8700000000000001      320                      18.035123426975584       NaN
-0.8700000000000001      330                      18.035123426975584       NaN
-0.8700000000000001      340                      18.035123426975584       NaN
-0.8700000000000001      350                      18.035123426975584       NaN
-0.8700000000000001      360                      18.035123426975584       NaN
-0.8700000000000001      370                      18.035123426975584       NaN
-0.8700000000000001      380                      18.035123426975584       NaN
-0.8700000000000001      390                      18.035123426975584       NaN
-0.8700000000000001      400                      18.035123426975584       NaN
