% Model:              multimorph_time.mph
% Version:            COMSOL 5.3.0.260
% Date:               Nov 19 2017, 05:41
% Table:              Table 1 - Point Evaluation 1 (emi.C11, w)
% S0 (GPa)               Maxwell capacitance (fF), Point: 22Displacement field, Z component (µm), Point: 22
0                        9.828654154099693        -0.003071530163301536
-0.01                    9.676898423537192        1.1890093347799804
-0.02                    9.548980510792669        2.380749844378642
-0.030000000000000002    9.440033125535251        3.572125758009142
-0.04                    9.346197696321571        4.763111807611785
-0.05                    9.264418244343243        5.953682106739673
-0.060000000000000005    9.19228836395626         7.143810381057837
-0.07                    9.127925401119725        8.33347010262566
-0.08                    9.069863762577484        9.52263457348929
-0.09000000000000001     9.016965792024452        10.711269816454603
-0.1                     8.968347193116273        11.899363335179943
-0.11                    8.923320873050693        13.08688094835377
-0.12000000000000001     8.8813499007533          14.27379569452702
-0.13                    8.842012795412568        15.460080610716071
-0.14                    8.804976747143078        16.64570860782489
-0.15000000000000002     8.769977246415044        17.830652810358966
-0.16                    8.73729740432586         18.998590852576054
-0.17                    8.70576446519492         20.181704748085508
-0.18000000000000002     8.675737192032816        21.364464317143465
-0.19                    8.647114621529786        22.546443068469458
-0.2                     8.619804101276593        23.72760368126079
-0.21000000000000002     8.59372889357202         24.907920010372372
-0.22                    8.56882547815453         26.08736250537297
-0.23                    8.54504091452063         27.265908251985724
-0.24000000000000002     8.5223312794475          28.443528200475946
-0.25                    8.500660013887233        29.620195914917584
-0.26                    8.479996857128505        30.795884550905015
-0.27                    8.460316946691792        31.97056645528717
-0.28                    8.441600006797364        33.144217841223714
-0.29000000000000004     8.423829869936704        34.3168120459198
-0.30000000000000004     8.4069939540383          35.48832070951554
-0.31                    8.391082809679483        36.65871666910252
-0.32                    8.376089799694919        37.8279763681953
-0.33                    8.362011006630787        38.996074020078595
-0.34                    8.348845154376294        40.162980793207865
-0.3500000000000001      8.336593517626953        41.328671426936
-0.36000000000000004     8.325260004191087        42.493121506094546
-0.37                    8.314851250198606        43.65630327103141
-0.38                    8.305376591076445        44.81819154466745
-0.39                    8.296848105292522        45.978760676862414
-0.4                     8.289280584130317        47.13798203399308
-0.4100000000000001      8.282691284462587        48.29583593937914
-0.42000000000000004     8.277099712645455        49.45229155302757
-0.43000000000000005     8.272526795271418        50.60732511417816
-0.44                    8.268993873234066        51.760910053395776
-0.45                    8.26652131221026         52.913022566467276
-0.46                    8.265127153349798        54.06363653869007
-0.47000000000000003     8.264826066050642        55.21272574426254
-0.48000000000000004     8.26562889405541         56.36026846596307
-0.49000000000000005     8.267542844935942        57.506235073948964
-0.5                     8.270572273701024        58.650602494218276
-0.51                    8.27472002900281         59.79334609210459
-0.52                    8.279989176902836        60.934438526686364
-0.53                    8.286384890169609        62.073858235146446
-0.54                    8.293916104779674        63.21158034162709
-0.55                    8.302596777498287        64.3475778144331
-0.56                    8.31244658819045         65.48182754643928
-0.5700000000000002      8.323490764938924        66.61430362424959
-0.5800000000000001      8.335759068896765        67.74498241161298
-0.5900000000000001      8.349283995711739        68.87384156487558
-0.6000000000000001      8.364098583210257        70.00085317476918
-0.61                    8.38023404346126         71.12599499562603
-0.62                    8.397715263327287        72.24924402889084
-0.63                    8.416552181701919        73.37057300469411
-0.64                    8.43672813865297         74.48996037768099
-0.65                    8.458191178365405        75.60738255367345
-0.66                    8.480856610519004        76.72281365558216
-0.67                    8.504621868927558        77.83623235017176
-0.68                    8.529385376284123        78.9476134288218
-0.6900000000000001      8.555060895979592        80.05693319539726
-0.7000000000000002      8.581583547819838        81.16416880002514
-0.7100000000000001      8.60890943747855         82.26930001063427
-0.7200000000000001      8.637011819146895        83.37229751197357
-0.7300000000000001      8.66587725704689         84.47314057630648
-0.74                    8.695501704653399        85.57180959850736
-0.75                    8.72588734527836         86.66827678505796
-0.76                    8.757040878687324        87.76252146682725
-0.77                    8.788971781574567        88.85451980180007
-0.78                    8.821691449697335        89.94425027456359
-0.79                    8.855212364522831        91.03168835621744
-0.8                     8.88954781229367         92.11681249267524
-0.81                    8.924711380646325        93.19959735046713
-0.8200000000000002      8.96071697612853         94.28002087446643
-0.8300000000000002      8.997580557538551        95.35812114786687
-0.8400000000000001      9.035297253817898        96.4333001951538
-0.8500000000000001      9.073252253259517        97.48789724782037
-0.8600000000000001      9.113418822926851        98.57708130013721
-0.8700000000000001      9.153866057124455        99.6459611987536
-0.88                    9.195220033267221        100.71181231448276
-0.89                    9.237526365678033        101.77545034082704
-0.9                     9.273760217370615        102.65537630213161
-0.91                    9.324232741350396        103.87606731836418
-0.92                    9.370161144884921        104.949294568056
-0.93                    9.416374908990214        106.00258505765608
-0.9400000000000001      9.46349298361542         107.05058143059453
-0.9500000000000002      9.499918625885435        107.83742139169445
-0.9600000000000001      9.560857648731966        109.13903555306547
-0.9700000000000001      9.611557107357212        110.18785339757423
-0.9800000000000001      9.662741904652078        111.22082763716831
-0.9900000000000001      9.715743522770817        112.26484053758388
-1                       9.769613923349718        113.29961764446682
