% Model:              multimorph.mph
% Version:            COMSOL 5.3.0.260
% Date:               Nov 19 2017, 03:44
% Table:              Table 2 - emi.C11 w emi.alpha11 (emi.C11, w)
% x_sh (um)              Tb (degC)                Maxwell capacitance (fF), Point: 22Displacement field, Z component (µm), Point: 22Coefficient of thermal expansion, 11 component (1/K), Point: 22
10                       0                        3.7422086660243865       7.614372955570074        1.42E-5
10                       5                        3.9125428303003114       5.712648589121399        1.42E-5
10                       10                       4.110913669634239        3.8083409052408106       1.42E-5
10                       15                       4.345135431009599        1.9015454179059914       1.42E-5
10                       20                       4.624038808788399        -0.0033975186841165863   1.42E-5
10                       25                       4.959116185739465        -1.9085190289920408      1.42E-5
10                       30                       5.373369056850818        -3.813842817647942       1.42E-5
10                       35                       5.931737391329399        -5.719632545897823       1.42E-5
10                       40                       6.828179407777807        -7.625752676558002       1.42E-5
10                       45                       8.66722578043425         NaN                      1.42E-5
10                       50                       8.66722578043425         NaN                      1.42E-5
10                       55                       8.66722578043425         NaN                      1.42E-5
10                       60                       8.66722578043425         NaN                      1.42E-5
10                       65                       8.66722578043425         NaN                      1.42E-5
10                       70                       8.66722578043425         NaN                      1.42E-5
10                       75                       8.66722578043425         NaN                      1.42E-5
10                       80                       8.66722578043425         NaN                      1.42E-5
10                       85                       8.66722578043425         NaN                      1.42E-5
10                       90                       8.66722578043425         NaN                      1.42E-5
10                       95                       8.66722578043425         NaN                      1.42E-5
10                       100                      8.66722578043425         NaN                      1.42E-5
12                       0                        3.439953929565338        7.6234398435872395       1.42E-5
12                       5                        3.578168265379808        5.71989423019131         1.42E-5
12                       10                       3.7358516801338983       3.81337137552376         1.42E-5
12                       15                       3.9173632578550515       1.9039602471070156       1.42E-5
12                       20                       4.127143609683553        -0.0031733839419049964   1.42E-5
12                       25                       4.371265130434469        -1.9104502507401797      1.42E-5
12                       30                       4.659874333538273        -3.8178000968107058      1.42E-5
12                       35                       5.017081938040247        -5.725249886982518       1.42E-5
12                       40                       5.498178005109413        -7.632739761306647       1.42E-5
12                       45                       6.257487711767434        -9.537955835973447       1.42E-5
12                       50                       8.203786659160794        -11.454595311363702      1.42E-5
12                       55                       9.606378938846277        NaN                      1.42E-5
12                       60                       9.606378938846277        NaN                      1.42E-5
12                       65                       9.606378938846277        NaN                      1.42E-5
12                       70                       9.606378938846277        NaN                      1.42E-5
12                       75                       9.606378938846277        NaN                      1.42E-5
12                       80                       9.606378938846277        NaN                      1.42E-5
12                       85                       9.606378938846277        NaN                      1.42E-5
12                       90                       9.606378938846277        NaN                      1.42E-5
12                       95                       9.606378938846277        NaN                      1.42E-5
12                       100                      9.606378938846277        NaN                      1.42E-5
14                       0                        3.1672968842239615       7.600553690994425        1.42E-5
14                       5                        3.282942579609094        5.703634655333257        1.42E-5
14                       10                       3.4133323962107833       3.799441938483444        1.42E-5
14                       15                       3.560322687819218        1.8983121283328654       1.42E-5
14                       20                       3.7267542306169577       -0.003049077176212122    1.42E-5
14                       25                       3.9152372613242252       -1.9045320635701104      1.42E-5
14                       30                       4.129935674871931        -3.8060467867630776      1.42E-5
14                       35                       4.381221185167933        -5.7075556367810485      1.42E-5
14                       40                       4.690801564234586        -7.609048233138285       1.42E-5
14                       45                       5.104488858689159        -9.510218216707866       1.42E-5
14                       50                       5.74483236623003         -11.408075956762374      1.42E-5
14                       55                       7.015708365310223        NaN                      1.42E-5
14                       60                       7.015708365310223        NaN                      1.42E-5
14                       65                       7.015708365310223        NaN                      1.42E-5
14                       70                       7.015708365310223        NaN                      1.42E-5
14                       75                       7.015708365310223        NaN                      1.42E-5
14                       80                       7.015708365310223        NaN                      1.42E-5
14                       85                       7.015708365310223        NaN                      1.42E-5
14                       90                       7.015708365310223        NaN                      1.42E-5
14                       95                       7.015708365310223        NaN                      1.42E-5
14                       100                      7.015708365310223        NaN                      1.42E-5
16                       0                        2.948255163441454        7.600281465048637        1.42E-5
16                       5                        3.0474739608331856       5.704157042054569        1.42E-5
16                       10                       3.158168249074134        3.799338098080031        1.42E-5
16                       15                       3.2812128705298216       1.8982964586480933       1.42E-5
16                       20                       3.4182846353100937       -0.002968891062464328    1.42E-5
16                       25                       3.5705539856311415       -1.9043482452581173      1.42E-5
16                       30                       3.7397334689011794       -3.80573784941986        1.42E-5
16                       35                       3.9307656645151345       -5.707068728664138       1.42E-5
16                       40                       4.154151335852959        -7.608351793184331       1.42E-5
16                       45                       4.428825264006052        -9.509320642025031       1.42E-5
16                       50                       4.793101839658724        -11.405825761985785      1.42E-5
16                       55                       5.350996272001653        -13.30995234520449       1.42E-5
16                       60                       6.5454671826214845       -15.212188537727117      1.42E-5
16                       65                       7.204507343712228        NaN                      1.42E-5
16                       70                       7.204507343712228        NaN                      1.42E-5
16                       75                       7.204507343712228        NaN                      1.42E-5
16                       80                       7.204507343712228        NaN                      1.42E-5
16                       85                       7.204507343712228        NaN                      1.42E-5
16                       90                       7.204507343712228        NaN                      1.42E-5
16                       95                       7.204507343712228        NaN                      1.42E-5
16                       100                      7.204507343712228        NaN                      1.42E-5
18                       0                        2.7687789860815157       7.599949425843969        1.42E-5
18                       5                        2.855197799770256        5.705367219149656        1.42E-5
18                       10                       2.9507860612114953       3.799197447483128        1.42E-5
18                       15                       3.05569920277687         1.898253957347543        1.42E-5
18                       20                       3.1710305751136914       -0.002907186457184652    1.42E-5
18                       25                       3.2973832122882225       -1.9041743833532778      1.42E-5
18                       30                       3.4356062404058636       -3.80543587540444        1.42E-5
18                       35                       3.588188730037855        -5.706599320598209       1.42E-5
18                       40                       3.7607481729654615       -7.607620922788543       1.42E-5
18                       45                       3.962816664087146        -9.508530192191555       1.42E-5
18                       50                       4.211070500982242        -11.408819220576971      1.42E-5
18                       55                       4.538441473982047        -13.303112148315765      1.42E-5
18                       60                       5.034239510484452        -15.207554311446547      1.42E-5
18                       65                       6.063838797030148        -17.107874291693626      1.42E-5
18                       70                       7.058730930425857        NaN                      1.42E-5
18                       75                       7.058730930425857        NaN                      1.42E-5
18                       80                       7.058730930425857        NaN                      1.42E-5
18                       85                       7.058730930425857        NaN                      1.42E-5
18                       90                       7.058730930425857        NaN                      1.42E-5
18                       95                       7.058730930425857        NaN                      1.42E-5
18                       100                      7.058730930425857        NaN                      1.42E-5
20                       0                        2.614089968400988        7.599523240296843        1.42E-5
20                       5                        2.6905753837275115       5.69949122508791         1.42E-5
20                       10                       2.773995419384043        3.7989984287475664       1.42E-5
20                       15                       2.8649879902556377       1.8981770296679317       1.42E-5
20                       20                       2.964022480968636        -0.0028603669461519455   1.42E-5
20                       25                       3.0713561507052956       -1.903997358361598       1.42E-5
20                       30                       3.18731273404563         -3.805120158845035       1.42E-5
20                       35                       3.313156974060911        -5.706117769373552       1.42E-5
20                       40                       3.452111322416797        -7.606923339862054       1.42E-5
20                       45                       3.6095860313611117       -9.507572980000917       1.42E-5
20                       50                       3.794038688512673        -11.407923124530885      1.42E-5
20                       55                       4.020211765232128        -13.307145712650353      1.42E-5
20                       60                       4.3164480032035915       -15.19817143481585       1.42E-5
20                       65                       4.759193465819183        -17.103720702409234      1.42E-5
20                       70                       5.641925083637467        -19.002289475920637      1.42E-5
20                       75                       6.2824637144192845       NaN                      1.42E-5
20                       80                       6.2824637144192845       NaN                      1.42E-5
20                       85                       6.2824637144192845       NaN                      1.42E-5
20                       90                       6.2824637144192845       NaN                      1.42E-5
20                       95                       6.2824637144192845       NaN                      1.42E-5
20                       100                      6.2824637144192845       NaN                      1.42E-5
