% Model:              multimorph.mph
% Version:            COMSOL 5.3.0.260
% Date:               Nov 18 2017, 22:52
% Table:              Table 2 - emi.C11 w emi.alpha11 (emi.C11, w, emi.alpha11)
% x_sh (um)              Tb (degC)                Maxwell capacitance (F), Point: 19Displacement field, Z component (µm), Point: 19Coefficient of thermal expansion, 11 component (1/K), Point: 19
10                       0                        3.742208666024387E-15    7.6175421075100544       5.0E-7
10                       5                        3.912542830300312E-15    5.71450463829904         5.0E-7
10                       10                       4.11091366963424E-15     3.8092303682571558       5.0E-7
10                       15                       4.3451354310095994E-15   1.9018158599881465       5.0E-7
10                       20                       4.624038808788399E-15    -0.003397518442617641    5.0E-7
10                       25                       4.959116185739466E-15    -1.9084415525995158      5.0E-7
10                       30                       5.3733690568508185E-15   -3.8133399502894565      5.0E-7
10                       35                       5.9317373913293995E-15   -5.718356247443722       5.0E-7
10                       40                       6.828179407777808E-15    -7.623354846500081       5.0E-7
10                       45                       8.667225780434252E-15    NaN                      5.0E-7
10                       50                       8.667225780434252E-15    NaN                      5.0E-7
10                       55                       8.667225780434252E-15    NaN                      5.0E-7
10                       60                       8.667225780434252E-15    NaN                      5.0E-7
10                       65                       8.667225780434252E-15    NaN                      5.0E-7
10                       70                       8.667225780434252E-15    NaN                      5.0E-7
10                       75                       8.667225780434252E-15    NaN                      5.0E-7
10                       80                       8.667225780434252E-15    NaN                      5.0E-7
10                       85                       8.667225780434252E-15    NaN                      5.0E-7
10                       90                       8.667225780434252E-15    NaN                      5.0E-7
10                       95                       8.667225780434252E-15    NaN                      5.0E-7
10                       100                      8.667225780434252E-15    NaN                      5.0E-7
12                       0                        3.4399539295653387E-15   7.626628240616033        5.0E-7
12                       5                        3.578168265379809E-15    5.721763772480581        5.0E-7
12                       10                       3.735851680133899E-15    3.8142690826879213       5.0E-7
12                       15                       3.917363257855052E-15    1.9042343725119786       5.0E-7
12                       20                       4.1271436096835536E-15   -0.003173383731599766    5.0E-7
12                       25                       4.371265130434469E-15    -1.9103757163593889      5.0E-7
12                       30                       4.659874333538274E-15    -3.817302410469718       5.0E-7
12                       35                       5.017081938040248E-15    -5.723980452558665       5.0E-7
12                       40                       5.4981780051094135E-15   -7.630350020610784       5.0E-7
12                       45                       6.2574877117674344E-15   -9.534099057429229       5.0E-7
12                       50                       8.203786659160796E-15    -11.448913759400956      5.0E-7
12                       55                       9.606378938846278E-15    NaN                      5.0E-7
12                       60                       9.606378938846278E-15    NaN                      5.0E-7
12                       65                       9.606378938846278E-15    NaN                      5.0E-7
12                       70                       9.606378938846278E-15    NaN                      5.0E-7
12                       75                       9.606378938846278E-15    NaN                      5.0E-7
12                       80                       9.606378938846278E-15    NaN                      5.0E-7
12                       85                       9.606378938846278E-15    NaN                      5.0E-7
12                       90                       9.606378938846278E-15    NaN                      5.0E-7
12                       95                       9.606378938846278E-15    NaN                      5.0E-7
12                       100                      9.606378938846278E-15    NaN                      5.0E-7
14                       0                        3.167296884223962E-15    7.603742804445129        5.0E-7
14                       5                        3.282942579609094E-15    5.705506718272401        5.0E-7
14                       10                       3.4133323962107837E-15   3.800341314006891        5.0E-7
14                       15                       3.560322687819218E-15    1.8985880035566347       5.0E-7
14                       20                       3.726754230616958E-15    -0.003049076982064442    5.0E-7
14                       25                       3.915237261324226E-15    -1.9044603329680123      5.0E-7
14                       30                       4.129935674871932E-15    -3.8055557732561582      5.0E-7
14                       35                       4.381221185167933E-15    -5.706297850883269       5.0E-7
14                       40                       4.6908015642345865E-15   -7.606676234745101       5.0E-7
14                       45                       5.10448885868916E-15     -9.50638480764318        5.0E-7
14                       50                       5.744832366230031E-15    -11.402436897503135      5.0E-7
14                       55                       7.0157083653102236E-15   NaN                      5.0E-7
14                       60                       7.0157083653102236E-15   NaN                      5.0E-7
14                       65                       7.0157083653102236E-15   NaN                      5.0E-7
14                       70                       7.0157083653102236E-15   NaN                      5.0E-7
14                       75                       7.0157083653102236E-15   NaN                      5.0E-7
14                       80                       7.0157083653102236E-15   NaN                      5.0E-7
14                       85                       7.0157083653102236E-15   NaN                      5.0E-7
14                       90                       7.0157083653102236E-15   NaN                      5.0E-7
14                       95                       7.0157083653102236E-15   NaN                      5.0E-7
14                       100                      7.0157083653102236E-15   NaN                      5.0E-7
16                       0                        2.9482551634414546E-15   7.603476694098357        5.0E-7
16                       5                        3.047473960833186E-15    5.7060340313885565       5.0E-7
16                       10                       3.1581682490741346E-15   3.8002405420123333       5.0E-7
16                       15                       3.281212870529822E-15    1.8985738713003784       5.0E-7
16                       20                       3.418284635310094E-15    -0.0029688908784743897   5.0E-7
16                       25                       3.570553985631142E-15    -1.9042780589980286      5.0E-7
16                       30                       3.73973346890118E-15     -3.8052499390784593      5.0E-7
16                       35                       3.930765664515135E-15    -5.705815638195991       5.0E-7
16                       40                       4.15415133585296E-15     -7.605986124639695       5.0E-7
16                       45                       4.428825264006053E-15    -9.505495221678236       5.0E-7
16                       50                       4.793101839658725E-15    -11.400197391705394      5.0E-7
16                       55                       5.3509962720016535E-15   -13.302166763077505      5.0E-7
16                       60                       6.545467182621485E-15    -15.201900026135059      5.0E-7
16                       65                       7.20450734371223E-15     NaN                      5.0E-7
16                       70                       7.20450734371223E-15     NaN                      5.0E-7
16                       75                       7.20450734371223E-15     NaN                      5.0E-7
16                       80                       7.20450734371223E-15     NaN                      5.0E-7
16                       85                       7.20450734371223E-15     NaN                      5.0E-7
16                       90                       7.20450734371223E-15     NaN                      5.0E-7
16                       95                       7.20450734371223E-15     NaN                      5.0E-7
16                       100                      7.20450734371223E-15     NaN                      5.0E-7
18                       0                        2.7687789860815163E-15   7.603150755130007        5.0E-7
18                       5                        2.855197799770256E-15    5.7072494665272          5.0E-7
18                       10                       2.9507860612114958E-15   3.800102952109236        5.0E-7
18                       15                       3.0556992027768705E-15   1.898532903133613        5.0E-7
18                       20                       3.171030575113692E-15    -0.0029071862806264726   5.0E-7
18                       25                       3.297383212288223E-15    -1.904105736971237       5.0E-7
18                       30                       3.435606240405864E-15    -3.8049510563005673      5.0E-7
18                       35                       3.588188730037856E-15    -5.705350898172727       5.0E-7
18                       40                       3.760748172965462E-15    -7.605261569938393       5.0E-7
18                       45                       3.9628166640871465E-15   -9.504712638168913       5.0E-7
18                       50                       4.211070500982242E-15    -11.403196661528249      5.0E-7
18                       55                       4.538441473982048E-15    -13.295343849886471      5.0E-7
18                       60                       5.034239510484453E-15    -15.197282241216946      5.0E-7
18                       65                       6.063838797030149E-15    -17.094755805940054      5.0E-7
18                       70                       7.058730930425858E-15    NaN                      5.0E-7
18                       75                       7.058730930425858E-15    NaN                      5.0E-7
18                       80                       7.058730930425858E-15    NaN                      5.0E-7
18                       85                       7.058730930425858E-15    NaN                      5.0E-7
18                       90                       7.058730930425858E-15    NaN                      5.0E-7
18                       95                       7.058730930425858E-15    NaN                      5.0E-7
18                       100                      7.058730930425858E-15    NaN                      5.0E-7
20                       0                        2.6140899684009887E-15   7.602729037879563        5.0E-7
20                       5                        2.690575383727512E-15    5.701374245216779        5.0E-7
20                       10                       2.7739954193840434E-15   3.7999061863074375       5.0E-7
20                       15                       2.864987990255638E-15    1.8984571066140172       5.0E-7
20                       20                       2.9640224809686363E-15   -0.002860366774806627    5.0E-7
20                       25                       3.071356150705296E-15    -1.9039298539278398      5.0E-7
20                       30                       3.1873127340456306E-15   -3.8046376355008977      5.0E-7
20                       35                       3.3131569740609113E-15   -5.704872822871613       5.0E-7
20                       40                       3.452111322416798E-15    -7.604568686579426       5.0E-7
20                       45                       3.609586031361112E-15    -9.503761409525572       5.0E-7
20                       50                       3.794038688512674E-15    -11.402307606909616      5.0E-7
20                       55                       4.020211765232128E-15    -13.29938011896084       5.0E-7
20                       60                       4.316448003203592E-15    -15.187918915781653      5.0E-7
20                       65                       4.759193465819183E-15    -17.090616384407333      5.0E-7
20                       70                       5.641925083637468E-15    -18.9859952022022        5.0E-7
20                       75                       6.282463714419286E-15    NaN                      5.0E-7
20                       80                       6.282463714419286E-15    NaN                      5.0E-7
20                       85                       6.282463714419286E-15    NaN                      5.0E-7
20                       90                       6.282463714419286E-15    NaN                      5.0E-7
20                       95                       6.282463714419286E-15    NaN                      5.0E-7
20                       100                      6.282463714419286E-15    NaN                      5.0E-7
