% Model:              multimorph_timestep_lite.mph
% Version:            COMSOL 5.3.0.316
% Date:               Nov 19 2017, 23:54
% Table:              Table 2 - Point Evaluation 1 (w2)
% Time (s)               Temperature (K), Point: 26Displacement field, Z component (µm), Point: 26
0                        293.15                   -4.687261511320111E-6
0.001                    293.15                   -0.0019978604042686326
0.002                    293.15                   -0.003060066683002852
0.003                    293.15000000000003       -0.0025807671681231208
0.004                    293.1499999999999        -0.0026804031265937585
0.005                    293.15                   -0.002543586819870957
0.006                    293.1500000000001        -0.002524763308546406
0.007                    293.15000000000015       -0.0025652918133983096
0.008                    293.1499999999998        -0.0025455060678274736
0.009000000000000001     293.1500000000002        -0.002518625342193418
0.01                     293.15000000000003       -0.002545578179902642
0.011                    293.15                   -0.0025248573325935136
0.012                    293.15                   -0.0025369827208037766
0.013000000000000001     293.15                   -0.0025313430486861026
0.014                    293.15                   -0.002531633928359485
0.015                    293.15000000000003       -0.0025352210741555773
0.016                    293.15                   -0.002528528132782954
0.017                    293.1499999999999        -0.002537477034590738
0.018000000000000002     293.15                   -0.00252667131264608
0.019                    293.15000000000003       -0.0025369705391169724
0.02                     293.15                   -0.0025294873777720757
0.021                    293.15                   -0.0025340034376246765
0.022                    293.15                   -0.0025319134183964366
0.023                    293.15                   -0.002531899027411158
0.024                    293.15                   -0.0025336574577877998
0.025                    293.15                   -0.0025294317583502745
0.026000000000000002     293.15                   -0.002532027955597482
0.027                    293.15000000000003       -0.0025345868480210016
0.028                    293.15                   -0.0025330803234245546
0.029                    293.1499999999999        -0.0025315737988281075
0.03                     293.15                   -0.0025317604847012523
0.031                    293.15                   -0.0025325011753093477
0.032                    293.15                   -0.0025327198469263
0.033                    293.15                   -0.0025324119874165878
0.034                    293.1499999999999        -0.002532185917645306
0.035                    293.1499999999999        -0.0025322157165940237
0.036000000000000004     293.15                   -0.002532245515542741
0.037                    293.15                   -0.0025322652278032777
0.038                    293.15                   -0.002532284803108756
0.039                    293.15000000000003       -0.0025323043784142353
0.04                     293.15000000000003       -0.002532323953719714
0.041                    293.15000000000003       -0.0025323324517073993
0.042                    293.15                   -0.002532328723994119
0.043000000000000003     293.15                   -0.00253232499628084
0.044                    293.1499999999999        -0.0025323212685675594
0.045                    293.1499999999999        -0.00253231754085428
0.046                    293.15                   -0.0025323138473122555
0.047                    293.1499999999999        -0.0025323101550420906
0.048                    293.15                   -0.002532306462771926
0.049                    293.15                   -0.002532302770501761
0.05                     293.15005952689154       -0.0025548006886527805
0.051000000000000004     293.15019097021747       -0.0026044835571284067
0.052000000000000005     293.1503224135434        -0.0026541664256040333
0.053                    293.1504538568694        -0.002703849294079659
0.054                    293.1505853001953        -0.002753532162555285
0.055                    293.15071674352123       -0.0028032150310309117
0.056                    293.1508481868472        -0.0028528978995065375
0.057                    293.1509796301732        -0.0029025807679821636
0.058                    293.1511110734991        -0.00295226363645779
0.059000000000000004     293.152363250668         -0.0034302973734562084
0.06                     293.1550987351157        -0.004475259614671872
0.061                    293.1578342195634        -0.005520221855887543
0.062                    293.16056970401115       -0.006565184097103213
0.063                    293.1633051884589        -0.007610146338318882
0.064                    293.1660406729066        -0.008655108579534552
0.065                    293.1687761573543        -0.009700070820750223
0.066                    293.17151164180206       -0.010745033061965894
0.067                    293.1742471262498        -0.011789995303181564
0.068                    293.1800199929903        -0.014042569083755412
0.069                    293.19020197782925       -0.018048133229275648
0.07                     293.2003839626681        -0.02205369737479589
0.07100000000000001      293.21056594750706       -0.026059261520316124
0.07200000000000001      293.22074793234594       -0.030064825665836358
0.073                    293.2309299171849        -0.03407038981135654
0.074                    293.2411119020237        -0.038075953956876775
0.075                    293.2512938868627        -0.04208151810239701
0.076                    293.2614758717016        -0.04608708224791725
0.077                    293.2729623100974        -0.050403431855117295
0.078                    293.2865289228022        -0.0552153820374218
0.079                    293.300095535507         -0.060027332219726316
0.08                     293.31366214821185       -0.06483928240203082
0.081                    293.3272287609166        -0.06965123258433534
0.082                    293.3407953736215        -0.07446318276663984
0.083                    293.35436198632624       -0.07927513294894435
0.084                    293.3679285990311        -0.08408708313124888
0.085                    293.3814952117359        -0.0888990333135534
0.08600000000000001      293.39611435321046       -0.09441834653004536
0.08700000000000001      293.4125811597718        -0.10117940250879023
0.088                    293.4290479663331        -0.10794045848753502
0.089                    293.4455147728943        -0.1147015144662799
0.09                     293.4619815794556        -0.12146257044502479
0.091                    293.4784483860169        -0.12822362642376964
0.092                    293.4984238699614        -0.1349882067418447
0.093                    293.51882957902745       -0.1417532192054695
0.094                    293.5392352880935        -0.14851823166909428
0.095                    293.5591651168874        -0.15548469497579162
0.096                    293.5776626543923        -0.16305747946158033
0.097                    293.5961601918973        -0.17063026394736905
0.098                    293.6146577294022        -0.17820304843315776
0.099                    293.6317269638521        -0.18443317629117742
0.1                      293.64877947783606       -0.1906475863053772
0.101                    293.666546877047         -0.19723854021870812
0.10200000000000001      293.6862743924741        -0.20486192531812403
0.10300000000000001      293.7059962756475        -0.2124491414598751
0.10400000000000001      293.725481436105         -0.2185161821085323
0.105                    293.74451015785115       -0.22521899162676456
0.106                    293.7614536383748        -0.23482631257714848
0.107                    293.7790956221945        -0.23944824255506797
0.108                    293.79778263647296       -0.24791809901774678
0.109                    293.815233404745         -0.2540423467639125
0.11                     293.832556962692         -0.2592107125077736
0.111                    293.84969299456975       -0.2664071573344702
0.112                    293.8665110411391        -0.2726290227558722
0.113                    293.88300490491565       -0.27885185037443605
0.114                    293.899113158236         -0.28497805048310637
0.115                    293.9148374311496        -0.2908806377093075
0.116                    293.9302148695833        -0.29671298939223906
0.117                    293.94519908150454       -0.30230783607284606
0.11800000000000001      293.9597051892159        -0.30776010959110134
0.11900000000000001      293.9737734317674        -0.3130762171957091
0.12                     293.9870556727895        -0.31808748463300807
0.121                    293.9999941040322        -0.32294776724189966
0.122                    294.01261209460904       -0.3276702525305618
0.123                    294.02452654045953       -0.33210998607083364
0.124                    294.03586401212345       -0.3364740705262138
0.125                    294.04673851831745       -0.34066978169545414
0.126                    294.05692739887854       -0.3440370083102373
0.127                    294.066612482391         -0.34814435082428113
0.128                    294.0758730325388        -0.352144330461922
0.129                    294.0843542325209        -0.35327571744443387
0.13                     294.0922515548456        -0.3581668216336114
0.131                    294.0996977934721        -0.3630929019516221
0.132                    294.1063172892595        -0.3627099244396086
0.133                    294.1125733051745        -0.3646560110710472
0.134                    294.11823801592186       -0.36726162788643496
0.135                    294.12339449616275       -0.36916024822281496
0.136                    294.1280015974305        -0.371153089891627
0.137                    294.13210197687926       -0.37276157881503996
0.138                    294.1356867209531        -0.3741089227213131
0.139                    294.1388051643832        -0.37536333776990655
0.14                     294.1414766329438        -0.37633386849524075
0.14100000000000001      294.1437556663523        -0.3771266640681322
0.14200000000000002      294.14555474841114       -0.3778595117735655
0.14300000000000002      294.14708939836186       -0.37844532020002714
0.14400000000000002      294.1483046122134        -0.3788535040028907
0.145                    294.1489511793943        -0.3791301646505689
0.146                    294.1494454824092        -0.37933654263867783
0.147                    294.1497716280678        -0.3794354829070387
0.148                    294.14996880739807       -0.3795120875910423
0.149                    294.15008114532264       -0.3795614603644894
0.15                     294.15002467431896       -0.3795381549493241
0.151                    294.14997421394855       -0.3795191987836172
0.152                    294.14993860814          -0.37950662754360803
0.153                    294.14999935913517       -0.3795282972106639
0.154                    294.15002964264494       -0.3795395865947316
0.155                    294.1500352273792        -0.37954246109730644
0.156                    294.14999081672903       -0.3795232292793936
0.157                    294.14997281291403       -0.37951819702058576
0.158                    294.14998903511463       -0.3795315383852328
0.159                    294.15001182661837       -0.3795294000650244
0.16                     294.1500207656385        -0.37952953549759283
0.161                    294.1499988544592        -0.3795388208994061
0.162                    294.14998869700923       -0.37952378295430433
0.163                    294.14998593717405       -0.3795089384799086
0.164                    294.1499976044088        -0.3795229439102149
0.165                    294.1500092716434        -0.3795369493405212
0.166                    294.15001931189016       -0.37954862627520586
0.167                    294.1500137518036        -0.37953797648875276
0.168                    294.1500081917171        -0.3795273267022996
0.169                    294.1500026316305        -0.3795166769158465
0.17                     294.1499970401663        -0.37952204457264
0.171                    294.14999144806114       -0.3795277394213039
0.17200000000000001      294.149985855956         -0.37953343426996783
0.17300000000000001      294.14999062055716       -0.3795303493513547
0.17400000000000002      294.1499969943145        -0.37952590029081357
0.17500000000000002      294.15000336807185       -0.37952145123027237
0.176                    294.1500057143235        -0.3795251605272139
0.177                    294.15000672565566       -0.3795315739175935
0.178                    294.1500077369878        -0.37953798730797306
0.179                    294.15000601452647       -0.3795380993940437
0.18                     294.1500027314915        -0.37953461440908426
0.181                    294.1499994484565        -0.3795311294241248
0.182                    294.1499961654215        -0.37952764443916537
0.183                    294.1499928823866        -0.37952415945420587
0.184                    294.14998959935156       -0.3795206744692465
0.185                    294.14998845833475       -0.37951942984381537
0.186                    294.14999042948284       -0.3795214402647325
0.187                    294.14999240063094       -0.3795234506856495
0.188                    294.14999437177903       -0.3795254611065666
0.189                    294.1499963429272        -0.37952747152748373
0.19                     294.1499983140753        -0.37952948194840086
0.191                    294.15000018144406       -0.37953112115216847
0.192                    294.1500015720329        -0.3795310549197676
0.193                    294.1500029626218        -0.3795309886873667
0.194                    294.15000435321065       -0.3795309224549658
0.195                    294.1500057437995        -0.3795308562225649
0.196                    294.1500071343884        -0.37953078999016393
0.197                    294.1500085249772        -0.37953072375776303
0.198                    294.15000670147447       -0.37953024233257315
0.199                    294.1500047082256        -0.3795297389797502
0.2                      294.1500027149766        -0.3795292356269272
0.201                    294.1500007217276        -0.3795287322741043
0.202                    294.14999872847864       -0.37952822892128135
0.203                    294.1499967352297        -0.3795277255684584
0.20400000000000001      294.1499958592254        -0.37952744322104764
0.20500000000000002      294.1499954157357        -0.37952724643061925
0.20600000000000002      294.14999497224596       -0.3795270496401908
0.20700000000000002      294.1499945287563        -0.37952685284976234
0.20800000000000002      294.1499940852666        -0.37952665605933394
0.209                    294.14999364177686       -0.3795264592689055
0.21                     294.14999319828723       -0.37952626247847704
0.211                    294.14999275479755       -0.37952606568804864
0.212                    294.14999231130787       -0.3795258688976202
0.213                    294.14999186781813       -0.37952567210719185
0.214                    294.14999142432845       -0.37952547531676345
0.215                    294.14999098083877       -0.37952527852633505
0.216                    294.1499909961681        -0.37952526382089574
0.217                    294.1499922967569        -0.37952575917805004
0.218                    294.1499935973457        -0.37952625453520433
0.219                    294.1499948979345        -0.3795267498923587
0.22                     294.1499961985233        -0.379527245249513
0.221                    294.1499974991121        -0.3795277406066673
0.222                    294.1499987997008        -0.37952823596382157
0.223                    294.1500001002897        -0.37952873132097587
0.224                    294.1500014008784        -0.3795292266781302
0.225                    294.15000270146726       -0.37952972203528446
0.226                    294.150004002056         -0.3795302173924388
0.227                    294.15000530264484       -0.3795307127495931
0.228                    294.15000660323363       -0.3795312081067474
0.229                    294.1500066330222        -0.37953121574063525
0.23                     294.1500063554282        -0.37953110540346136
0.231                    294.15000607783423       -0.3795309950662874
0.232                    294.1500058002403        -0.37953088472911345
0.233                    294.1500055226463        -0.3795307743919395
0.234                    294.15000524505234       -0.37953066405476554
0.23500000000000001      294.15000496745836       -0.37953055371759165
0.23600000000000002      294.1500046898644        -0.37953044338041764
0.23700000000000002      294.15000441227045       -0.37953033304324374
0.23800000000000002      294.15000413467646       -0.37953022270606973
0.23900000000000002      294.1500038570825        -0.37953011236889583
0.24                     294.1500035794885        -0.3795300020317218
0.241                    294.15000318632195       -0.3795298545723672
0.242                    294.15000257603725       -0.37952963737420414
0.243                    294.1500019657526        -0.37952942017604113
0.244                    294.15000135546796       -0.37952920297787807
0.245                    294.1500007451833        -0.3795289857797151
0.246                    294.1500001348986        -0.379528768581552
0.247                    294.149999524614         -0.379528551383389
0.248                    294.1499989143294        -0.3795283341852259
0.249                    294.1499983040447        -0.3795281169870629
0.25                     294.14999769376004       -0.3795278997888999
0.251                    294.1499970834754        -0.37952768259073677
0.252                    294.14999647319075       -0.3795274653925737
0.253                    294.1499958629061        -0.3795272481944107
0.254                    294.1499952526214        -0.3795270309962476
0.255                    294.14999464233676       -0.3795268137980846
0.256                    294.14999403205206       -0.37952659659992155
0.257                    294.1499934217674        -0.3795263794017585
0.258                    294.1499928114828        -0.3795261622035955
0.259                    294.1499922011982        -0.3795259450054324
0.26                     294.14999159091354       -0.3795257278072694
0.261                    294.14999098062884       -0.3795255106091063
0.262                    294.1499903703442        -0.37952529341094327
0.263                    294.14998976005955       -0.3795250762127802
0.264                    294.1499891497749        -0.3795248590146172
0.265                    294.1499885394902        -0.3795246418164542
0.266                    294.14998844845957       -0.37952459623060686
0.267                    294.1499890409797        -0.37952477655677336
0.268                    294.14998963349973       -0.37952495688293975
0.269                    294.14999022601984       -0.3795251372091062
0.27                     294.14999081853983       -0.3795253175352726
0.271                    294.1499914110599        -0.379525497861439
0.272                    294.14999200357994       -0.3795256781876054
0.273                    294.14999259610005       -0.37952585851377185
0.274                    294.1499931886201        -0.3795260388399383
0.275                    294.14999378114015       -0.3795262191661047
0.276                    294.14999437366026       -0.3795263994922712
0.277                    294.14999496618026       -0.3795265798184375
0.278                    294.14999555870037       -0.37952676014460396
0.279                    294.1499961512204        -0.3795269404707704
0.28                     294.1499967437404        -0.3795271207969368
0.281                    294.1499973362605        -0.3795273011231033
0.28200000000000003      294.1499979287806        -0.3795274814492697
0.28300000000000003      294.14999852130063       -0.3795276617754362
0.28400000000000003      294.1499991138207        -0.3795278421016025
0.28500000000000003      294.1499997063408        -0.37952802242776895
0.28600000000000003      294.15000029886085       -0.3795282027539354
0.28700000000000003      294.1500008913809        -0.3795283830801018
0.28800000000000003      294.15000148390095       -0.3795285634062683
0.289                    294.15000207642106       -0.37952874373243467
0.29                     294.15000266894106       -0.3795289240586011
0.291                    294.150003064875         -0.37952908260640306
0.292                    294.1500032764272        -0.3795292207278897
0.293                    294.1500034879794        -0.3795293588493764
0.294                    294.1500036995317        -0.379529496970863
0.295                    294.1500039110839        -0.3795296350923497
0.296                    294.1500041226361        -0.3795297732138364
0.297                    294.1500043341884        -0.37952991133532304
0.298                    294.1500045457406        -0.37953004945680974
0.299                    294.1500047572928        -0.37953018757829643
0.3                      294.15000496884505       -0.37953032569978307
0.301                    294.1500051803973        -0.37953046382126976
0.302                    294.1500053919495        -0.37953060194275645
0.303                    294.15000560350177       -0.37953074006424314
0.304                    294.150005815054         -0.3795308781857298
0.305                    294.1500060266062        -0.3795310163072165
0.306                    294.1500062381585        -0.37953115442870317
0.307                    294.1500064497107        -0.3795312925501898
0.308                    294.15000666126286       -0.3795314306716765
0.309                    294.15000687281514       -0.3795315687931632
0.31                     294.15000708436736       -0.3795317069146498
0.311                    294.1500072959196        -0.3795318450361365
0.312                    294.15000750747186       -0.3795319831576232
0.313                    294.1500077190241        -0.3795321212791099
0.314                    294.1500079305763        -0.3795322594005965
0.315                    294.15000814212857       -0.3795323975220832
0.316                    294.1500083536808        -0.3795325356435699
0.317                    294.15000856523295       -0.37953267376505656
0.318                    294.1500087767852        -0.37953281188654325
0.319                    294.15000898833745       -0.37953295000802995
0.32                     294.15000919988967       -0.3795330881295166
0.321                    294.15000941144194       -0.3795332262510032
0.322                    294.15000962299416       -0.3795333643724899
0.323                    294.1500098345464        -0.3795335024939766
0.324                    294.15001004609866       -0.37953364061546335
0.325                    294.1500102576508        -0.37953377873695
0.326                    294.15001046920304       -0.3795339168584366
0.327                    294.1500106807553        -0.3795340549799233
0.328                    294.15001089230753       -0.37953419310141
0.329                    294.15001110385975       -0.37953433122289665
0.33                     294.15001131541203       -0.3795344693443834
0.331                    294.15001117776956       -0.3795343754920714
0.332                    294.1500107126113        -0.3795340640674096
0.333                    294.1500102474529        -0.37953375264274763
0.334                    294.15000978229455       -0.37953344121808574
0.335                    294.1500093171362        -0.3795331297934238
0.336                    294.15000885197793       -0.37953281836876185
0.337                    294.1500083868196        -0.3795325069441
0.338                    294.1500079216612        -0.37953219551943806
0.339                    294.15000745650286       -0.3795318840947762
0.34                     294.1500069913446        -0.3795315726701142
0.341                    294.1500065261862        -0.3795312612454523
0.342                    294.15000606102785       -0.3795309498207904
0.343                    294.1500055958695        -0.3795306383961285
0.34400000000000003      294.15000513071124       -0.37953032697146655
0.34500000000000003      294.1500046655529        -0.3795300155468046
0.34600000000000003      294.15000420039456       -0.3795297041221427
0.34700000000000003      294.15000373523617       -0.3795293926974808
0.34800000000000003      294.1500032700779        -0.37952908127281887
0.34900000000000003      294.15000280491955       -0.37952876984815703
0.35000000000000003      294.1500023397612        -0.37952845842349514
0.35100000000000003      294.15000187460294       -0.37952814699883325
0.352                    294.15000140944454       -0.3795278355741713
0.353                    294.1500009442862        -0.3795275241495093
0.354                    294.15000047912787       -0.37952721272484746
0.355                    294.1500000139696        -0.3795269013001855
0.356                    294.1499995488112        -0.3795265898755236
0.357                    294.14999908365286       -0.3795262784508617
0.358                    294.1499986184945        -0.37952596702619973
0.359                    294.14999815333624       -0.3795256556015379
0.36                     294.14999768817785       -0.37952534417687595
0.361                    294.1499972230195        -0.37952503275221405
0.362                    294.1499967578612        -0.3795247213275521
0.363                    294.1499962927029        -0.37952440990289016
0.364                    294.1499958275445        -0.37952409847822827
0.365                    294.1499953623862        -0.3795237870535664
0.366                    294.1499948972278        -0.3795234756289044
0.367                    294.14999443206955       -0.37952316420424254
0.368                    294.14999396691115       -0.3795228527795806
0.369                    294.1499935017528        -0.3795225413549187
0.37                     294.1499930365945        -0.3795222299302568
0.371                    294.14999284374665       -0.3795221934421797
0.372                    294.1499929063035        -0.37952241482201376
0.373                    294.1499929688604        -0.37952263620184784
0.374                    294.1499930314173        -0.37952285758168186
0.375                    294.14999309397416       -0.37952307896151594
0.376                    294.149993156531         -0.37952330034135
0.377                    294.14999321908795       -0.379523521721184
0.378                    294.14999328164487       -0.37952374310101805
0.379                    294.14999334420173       -0.3795239644808522
0.38                     294.14999340675865       -0.3795241858606862
0.381                    294.1499934693155        -0.3795244072405202
0.382                    294.14999353187244       -0.3795246286203543
0.383                    294.14999359442925       -0.3795248500001883
0.384                    294.14999365698617       -0.3795250713800224
0.385                    294.14999371954303       -0.3795252927598565
0.386                    294.14999378209995       -0.3795255141396905
0.387                    294.1499938446569        -0.3795257355195245
0.388                    294.14999390721374       -0.37952595689935864
0.389                    294.14999396977066       -0.37952617827919266
0.39                     294.1499940323275        -0.3795263996590267
0.391                    294.14999409488445       -0.37952662103886076
0.392                    294.14999415744137       -0.3795268424186949
0.393                    294.1499942199982        -0.37952706379852885
0.394                    294.14999428255516       -0.379527285178363
0.395                    294.14999434511196       -0.37952750655819695
0.396                    294.14999440766894       -0.37952772793803097
0.397                    294.1499944702258        -0.3795279493178651
0.398                    294.14999453278267       -0.3795281706976992
0.399                    294.14999459533954       -0.3795283920775332
0.4                      294.14999465789646       -0.3795286134573672
